 # File generated with Atomsk by GIANT on 2022-09-10 22:26:10
 
        2304  atoms
           2  atom types
 
      0.00000000      24.59548011  xlo xhi
      0.00000000      22.28310724  ylo yhi
      0.00000000      62.87954300  zlo zhi
 
Masses
 
           1   69.72300000    # Ga
           2   14.00700000    # N 
 
Atoms # atomic
 
         1    1        5.86517472       1.85691818       5.23535075
         2    1        7.47329399       0.92847023       2.61534883
         3    2        5.86517472       1.85691818       1.96957593
         4    2        7.47329399       0.92847023       4.58957784
         5    1        5.86517472       1.85691818      15.73623443
         6    1        7.47329399       0.92847023      13.11623251
         7    2        5.86517472       1.85691818      12.47045961
         8    2        7.47329399       0.92847023      15.09046152
         9    1        5.86517472       1.85691818      20.95523650
        10    1        7.47329399       0.92847023      18.33523458
        11    2        5.86517472       1.85691818      17.68946168
        12    2        7.47329399       0.92847023      20.30946359
        13    1        5.86517472       1.85691818      31.45612018
        14    1        7.47329399       0.92847023      28.83611826
        15    2        5.86517472       1.85691818      28.19034536
        16    2        7.47329399       0.92847023      30.81034727
        17    1        5.86517472       1.85691818      26.17423857
        18    1        7.47329399       0.92847023      23.55423665
        19    2        5.86517472       1.85691818      22.90846374
        20    2        7.47329399       0.92847023      25.52846566
        21    1        5.86517472       1.85691818      36.67512225
        22    1        7.47329399       0.92847023      34.05512033
        23    2        5.86517472       1.85691818      33.40934743
        24    2        7.47329399       0.92847023      36.02934934
        25    1        5.86517472       1.85691818      41.89412432
        26    1        7.47329399       0.92847023      39.27412240
        27    2        5.86517472       1.85691818      38.62834949
        28    2        7.47329399       0.92847023      41.24835141
        29    1        5.86517472       1.85691818      52.39500800
        30    1        7.47329399       0.92847023      49.77500608
        31    2        5.86517472       1.85691818      49.12923318
        32    2        7.47329399       0.92847023      51.74923509
        33    1        5.86517472       1.85691818      47.17600593
        34    1        7.47329399       0.92847023      44.55600401
        35    2        5.86517472       1.85691818      43.91023111
        36    2        7.47329399       0.92847023      46.53023302
        37    1        5.86517472       1.85691818       0.01634868
        38    1        7.47329399       0.92847023      60.27588976
        39    2        5.86517472       1.85691818      59.63011686
        40    2        7.47329399       0.92847023      62.25011877
        41    1        5.86517472       1.85691818      57.61401007
        42    1        7.47329399       0.92847023      54.99400815
        43    2        5.86517472       1.85691818      54.34823524
        44    2        7.47329399       0.92847023      56.96823716
        45    1        5.86517472       1.85691818      10.45435282
        46    1        7.47329399       0.92847023       7.83435090
        47    2        5.86517472       1.85691818       7.18857799
        48    2        7.47329399       0.92847023       9.80857991
        49    1        4.25702945       4.64230658       5.23535075
        50    1        5.86514873       3.71385863       2.61534883
        51    2        4.25702945       4.64230658       1.96957593
        52    2        5.86514873       3.71385863       4.58957784
        53    1        4.25702945       4.64230658      15.73623443
        54    1        5.86514873       3.71385863      13.11623251
        55    2        4.25702945       4.64230658      12.47045961
        56    2        5.86514873       3.71385863      15.09046152
        57    1        4.25702945       4.64230658      20.95523650
        58    1        5.86514873       3.71385863      18.33523458
        59    2        4.25702945       4.64230658      17.68946168
        60    2        5.86514873       3.71385863      20.30946359
        61    1        4.25702945       4.64230658      31.45612018
        62    1        5.86514873       3.71385863      28.83611826
        63    2        4.25702945       4.64230658      28.19034536
        64    2        5.86514873       3.71385863      30.81034727
        65    1        4.25702945       4.64230658      26.17423857
        66    1        5.86514873       3.71385863      23.55423665
        67    2        4.25702945       4.64230658      22.90846374
        68    2        5.86514873       3.71385863      25.52846566
        69    1        4.25702945       4.64230658      36.67512225
        70    1        5.86514873       3.71385863      34.05512033
        71    2        4.25702945       4.64230658      33.40934743
        72    2        5.86514873       3.71385863      36.02934934
        73    1        4.25702945       4.64230658      41.89412432
        74    1        5.86514873       3.71385863      39.27412240
        75    2        4.25702945       4.64230658      38.62834949
        76    2        5.86514873       3.71385863      41.24835141
        77    1        4.25702945       4.64230658      52.39500800
        78    1        5.86514873       3.71385863      49.77500608
        79    2        4.25702945       4.64230658      49.12923318
        80    2        5.86514873       3.71385863      51.74923509
        81    1        4.25702945       4.64230658      47.17600593
        82    1        5.86514873       3.71385863      44.55600401
        83    2        4.25702945       4.64230658      43.91023111
        84    2        5.86514873       3.71385863      46.53023302
        85    1        4.25702945       4.64230658       0.01634868
        86    1        5.86514873       3.71385863      60.27588976
        87    2        4.25702945       4.64230658      59.63011686
        88    2        5.86514873       3.71385863      62.25011877
        89    1        4.25702945       4.64230658      57.61401007
        90    1        5.86514873       3.71385863      54.99400815
        91    2        4.25702945       4.64230658      54.34823524
        92    2        5.86514873       3.71385863      56.96823716
        93    1        4.25702945       4.64230658      10.45435282
        94    1        5.86514873       3.71385863       7.83435090
        95    2        4.25702945       4.64230658       7.18857799
        96    2        5.86514873       3.71385863       9.80857991
        97    1        2.64888419       7.42769499       5.24792666
        98    1        4.25700346       6.49924704       2.62792474
        99    2        2.64888419       7.42769499       1.98215183
       100    2        4.25700346       6.49924704       4.60215375
       101    1        2.64888419       7.42769499      15.74881034
       102    1        4.25700346       6.49924704      13.12880842
       103    2        2.64888419       7.42769499      12.48303551
       104    2        4.25700346       6.49924704      15.10303743
       105    1        2.64888419       7.42769499      20.96781241
       106    1        4.25700346       6.49924704      18.34781049
       107    2        2.64888419       7.42769499      17.70203758
       108    2        4.25700346       6.49924704      20.32203950
       109    1        2.64888419       7.42769499      31.46869609
       110    1        4.25700346       6.49924704      28.84869417
       111    2        2.64888419       7.42769499      28.20292126
       112    2        4.25700346       6.49924704      30.82292318
       113    1        2.64888419       7.42769499      26.18681448
       114    1        4.25700346       6.49924704      23.56681256
       115    2        2.64888419       7.42769499      22.92103965
       116    2        4.25700346       6.49924704      25.54104157
       117    1        2.64888419       7.42769499      36.68769816
       118    1        4.25700346       6.49924704      34.06769624
       119    2        2.64888419       7.42769499      33.42192333
       120    2        4.25700346       6.49924704      36.04192525
       121    1        2.64888419       7.42769499      41.90670023
       122    1        4.25700346       6.49924704      39.28669831
       123    2        2.64888419       7.42769499      38.64092540
       124    2        4.25700346       6.49924704      41.26092732
       125    1        2.64888419       7.42769499      52.40758391
       126    1        4.25700346       6.49924704      49.78758199
       127    2        2.64888419       7.42769499      49.14180908
       128    2        4.25700346       6.49924704      51.76181100
       129    1        2.64888419       7.42769499      47.18858184
       130    1        4.25700346       6.49924704      44.56857992
       131    2        2.64888419       7.42769499      43.92280701
       132    2        4.25700346       6.49924704      46.54280893
       133    1        2.64888419       7.42769499       0.02892459
       134    1        4.25700346       6.49924704      60.28846567
       135    2        2.64888419       7.42769499      59.64269276
       136    2        4.25700346       6.49924704      62.26269468
       137    1        2.64888419       7.42769499      57.62658598
       138    1        4.25700346       6.49924704      55.00658406
       139    2        2.64888419       7.42769499      54.36081115
       140    2        4.25700346       6.49924704      56.98081307
       141    1        2.64888419       7.42769499      10.46692873
       142    1        4.25700346       6.49924704       7.84692681
       143    2        2.64888419       7.42769499       7.20115390
       144    2        4.25700346       6.49924704       9.82115582
       145    1        1.04073892      10.21308339      15.74881034
       146    1        2.64885820       9.28463544      13.12880842
       147    2        1.04073892      10.21308339      12.48303551
       148    2        2.64885820       9.28463544      15.10303743
       149    1        1.04073892      10.21308339      26.24969402
       150    1        2.64885820       9.28463544      23.62969210
       151    2        1.04073892      10.21308339      22.98391920
       152    2        2.64885820       9.28463544      25.60392111
       153    1        1.04073892      10.21308339      31.46869609
       154    1        2.64885820       9.28463544      28.84869417
       155    2        1.04073892      10.21308339      28.20292126
       156    2        2.64885820       9.28463544      30.82292318
       157    1        1.04073892      10.21308339      41.96957977
       158    1        2.64885820       9.28463544      39.34957785
       159    2        1.04073892      10.21308339      38.70380495
       160    2        2.64885820       9.28463544      41.32380686
       161    1        1.04073892      10.21308339      36.68769816
       162    1        2.64885820       9.28463544      34.06769624
       163    2        1.04073892      10.21308339      33.42192333
       164    2        2.64885820       9.28463544      36.04192525
       165    1        1.04073892      10.21308339      47.18858184
       166    1        2.64885820       9.28463544      44.56857992
       167    2        1.04073892      10.21308339      43.92280701
       168    2        2.64885820       9.28463544      46.54280893
       169    1        1.04073892      10.21308339      52.40758391
       170    1        2.64885820       9.28463544      49.78758199
       171    2        1.04073892      10.21308339      49.14180908
       172    2        2.64885820       9.28463544      51.76181100
       173    1        1.04073892      10.21308339       0.02892459
       174    1        2.64885820       9.28463544      60.28846567
       175    2        1.04073892      10.21308339      59.64269276
       176    2        2.64885820       9.28463544      62.26269468
       177    1        1.04073892      10.21308339      57.68946552
       178    1        2.64885820       9.28463544      55.06946360
       179    2        1.04073892      10.21308339      54.42369070
       180    2        2.64885820       9.28463544      57.04369261
       181    1        1.04073892      10.21308339      10.52980827
       182    1        2.64885820       9.28463544       7.90980635
       183    2        1.04073892      10.21308339       7.26403345
       184    2        2.64885820       9.28463544       9.88403536
       185    1        1.04073892      10.21308339       5.24792666
       186    1        2.64885820       9.28463544       2.62792474
       187    2        1.04073892      10.21308339       1.98215183
       188    2        2.64885820       9.28463544       4.60215375
       189    1        1.04073892      10.21308339      20.96781241
       190    1        2.64885820       9.28463544      18.34781049
       191    2        1.04073892      10.21308339      17.70203758
       192    2        2.64885820       9.28463544      20.32203950
       193    1        1.04071293      12.07002385      28.84869417
       194    2        1.04071293      12.07002385      30.82292318
       195    1        1.04071293      12.07002385      39.34957785
       196    2        1.04071293      12.07002385      41.32380686
       197    1        1.04071293      12.07002385      44.56857992
       198    2        1.04071293      12.07002385      46.54280893
       199    1        1.04071293      12.07002385      55.06946360
       200    2        1.04071293      12.07002385      57.04369261
       201    1        1.04071293      12.07002385      49.78758199
       202    2        1.04071293      12.07002385      51.76181100
       203    1        1.04071293      12.07002385      60.28846567
       204    2        1.04071293      12.07002385      62.26269468
       205    1        1.04071293      12.07002385       2.62792474
       206    2        1.04071293      12.07002385       4.60215375
       207    1        1.04071293      12.07002385      13.12880842
       208    2        1.04071293      12.07002385      15.10303743
       209    1        1.04071293      12.07002385       7.90980635
       210    2        1.04071293      12.07002385       9.88403536
       211    1        1.04071293      12.07002385      23.62969210
       212    2        1.04071293      12.07002385      25.60392111
       213    1        1.04071293      12.07002385      18.34781049
       214    2        1.04071293      12.07002385      20.32203950
       215    1        1.04071293      12.07002385      34.06769624
       216    2        1.04071293      12.07002385      36.04192525
       217    1        9.08146447       1.85691818       5.23535075
       218    1       10.68958374       0.92847023       2.61534883
       219    2        9.08146447       1.85691818       1.96957593
       220    2       10.68958374       0.92847023       4.58957784
       221    1        9.08146447       1.85691818      15.73623443
       222    1       10.68958374       0.92847023      13.11623251
       223    2        9.08146447       1.85691818      12.47045961
       224    2       10.68958374       0.92847023      15.09046152
       225    1        9.08146447       1.85691818      20.95523650
       226    1       10.68958374       0.92847023      18.33523458
       227    2        9.08146447       1.85691818      17.68946168
       228    2       10.68958374       0.92847023      20.30946359
       229    1        9.08146447       1.85691818      31.45612018
       230    1       10.68958374       0.92847023      28.83611826
       231    2        9.08146447       1.85691818      28.19034536
       232    2       10.68958374       0.92847023      30.81034727
       233    1        9.08146447       1.85691818      26.17423857
       234    1       10.68958374       0.92847023      23.55423665
       235    2        9.08146447       1.85691818      22.90846374
       236    2       10.68958374       0.92847023      25.52846566
       237    1        9.08146447       1.85691818      36.67512225
       238    1       10.68958374       0.92847023      34.05512033
       239    2        9.08146447       1.85691818      33.40934743
       240    2       10.68958374       0.92847023      36.02934934
       241    1        9.08146447       1.85691818      41.89412432
       242    1       10.68958374       0.92847023      39.27412240
       243    2        9.08146447       1.85691818      38.62834949
       244    2       10.68958374       0.92847023      41.24835141
       245    1        9.08146447       1.85691818      52.39500800
       246    1       10.68958374       0.92847023      49.77500608
       247    2        9.08146447       1.85691818      49.12923318
       248    2       10.68958374       0.92847023      51.74923509
       249    1        9.08146447       1.85691818      47.17600593
       250    1       10.68958374       0.92847023      44.55600401
       251    2        9.08146447       1.85691818      43.91023111
       252    2       10.68958374       0.92847023      46.53023302
       253    1        9.08146447       1.85691818       0.01634868
       254    1       10.68958374       0.92847023      60.27588976
       255    2        9.08146447       1.85691818      59.63011686
       256    2       10.68958374       0.92847023      62.25011877
       257    1        9.08146447       1.85691818      57.61401007
       258    1       10.68958374       0.92847023      54.99400815
       259    2        9.08146447       1.85691818      54.34823524
       260    2       10.68958374       0.92847023      56.96823716
       261    1        9.08146447       1.85691818      10.45435282
       262    1       10.68958374       0.92847023       7.83435090
       263    2        9.08146447       1.85691818       7.18857799
       264    2       10.68958374       0.92847023       9.80857991
       265    1        7.47331920       4.64230658       5.23535075
       266    1        9.08143848       3.71385863       2.61534883
       267    2        7.47331920       4.64230658       1.96957593
       268    2        9.08143848       3.71385863       4.58957784
       269    1        7.47331920       4.64230658      15.73623443
       270    1        9.08143848       3.71385863      13.11623251
       271    2        7.47331920       4.64230658      12.47045961
       272    2        9.08143848       3.71385863      15.09046152
       273    1        7.47331920       4.64230658      20.95523650
       274    1        9.08143848       3.71385863      18.33523458
       275    2        7.47331920       4.64230658      17.68946168
       276    2        9.08143848       3.71385863      20.30946359
       277    1        7.47331920       4.64230658      31.45612018
       278    1        9.08143848       3.71385863      28.83611826
       279    2        7.47331920       4.64230658      28.19034536
       280    2        9.08143848       3.71385863      30.81034727
       281    1        7.47331920       4.64230658      26.17423857
       282    1        9.08143848       3.71385863      23.55423665
       283    2        7.47331920       4.64230658      22.90846374
       284    2        9.08143848       3.71385863      25.52846566
       285    1        7.47331920       4.64230658      36.67512225
       286    1        9.08143848       3.71385863      34.05512033
       287    2        7.47331920       4.64230658      33.40934743
       288    2        9.08143848       3.71385863      36.02934934
       289    1        7.47331920       4.64230658      41.89412432
       290    1        9.08143848       3.71385863      39.27412240
       291    2        7.47331920       4.64230658      38.62834949
       292    2        9.08143848       3.71385863      41.24835141
       293    1        7.47331920       4.64230658      52.39500800
       294    1        9.08143848       3.71385863      49.77500608
       295    2        7.47331920       4.64230658      49.12923318
       296    2        9.08143848       3.71385863      51.74923509
       297    1        7.47331920       4.64230658      47.17600593
       298    1        9.08143848       3.71385863      44.55600401
       299    2        7.47331920       4.64230658      43.91023111
       300    2        9.08143848       3.71385863      46.53023302
       301    1        7.47331920       4.64230658       0.01634868
       302    1        9.08143848       3.71385863      60.27588976
       303    2        7.47331920       4.64230658      59.63011686
       304    2        9.08143848       3.71385863      62.25011877
       305    1        7.47331920       4.64230658      57.61401007
       306    1        9.08143848       3.71385863      54.99400815
       307    2        7.47331920       4.64230658      54.34823524
       308    2        9.08143848       3.71385863      56.96823716
       309    1        7.47331920       4.64230658      10.45435282
       310    1        9.08143848       3.71385863       7.83435090
       311    2        7.47331920       4.64230658       7.18857799
       312    2        9.08143848       3.71385863       9.80857991
       313    1        5.86517394       7.42769499       5.24792666
       314    1        7.47329321       6.49924704       2.62792474
       315    2        5.86517394       7.42769499       1.98215183
       316    2        7.47329321       6.49924704       4.60215375
       317    1        5.86517394       7.42769499      15.74881034
       318    1        7.47329321       6.49924704      13.12880842
       319    2        5.86517394       7.42769499      12.48303551
       320    2        7.47329321       6.49924704      15.10303743
       321    1        5.86517394       7.42769499      20.96781241
       322    1        7.47329321       6.49924704      18.34781049
       323    2        5.86517394       7.42769499      17.70203758
       324    2        7.47329321       6.49924704      20.32203950
       325    1        5.86517394       7.42769499      31.46869609
       326    1        7.47329321       6.49924704      28.84869417
       327    2        5.86517394       7.42769499      28.20292126
       328    2        7.47329321       6.49924704      30.82292318
       329    1        5.86517394       7.42769499      26.18681448
       330    1        7.47329321       6.49924704      23.56681256
       331    2        5.86517394       7.42769499      22.92103965
       332    2        7.47329321       6.49924704      25.54104157
       333    1        5.86517394       7.42769499      36.68769816
       334    1        7.47329321       6.49924704      34.06769624
       335    2        5.86517394       7.42769499      33.42192333
       336    2        7.47329321       6.49924704      36.04192525
       337    1        5.86517394       7.42769499      41.90670023
       338    1        7.47329321       6.49924704      39.28669831
       339    2        5.86517394       7.42769499      38.64092540
       340    2        7.47329321       6.49924704      41.26092732
       341    1        5.86517394       7.42769499      52.40758391
       342    1        7.47329321       6.49924704      49.78758199
       343    2        5.86517394       7.42769499      49.14180908
       344    2        7.47329321       6.49924704      51.76181100
       345    1        5.86517394       7.42769499      47.18858184
       346    1        7.47329321       6.49924704      44.56857992
       347    2        5.86517394       7.42769499      43.92280701
       348    2        7.47329321       6.49924704      46.54280893
       349    1        5.86517394       7.42769499       0.02892459
       350    1        7.47329321       6.49924704      60.28846567
       351    2        5.86517394       7.42769499      59.64269276
       352    2        7.47329321       6.49924704      62.26269468
       353    1        5.86517394       7.42769499      57.62658598
       354    1        7.47329321       6.49924704      55.00658406
       355    2        5.86517394       7.42769499      54.36081115
       356    2        7.47329321       6.49924704      56.98081307
       357    1        5.86517394       7.42769499      10.46692873
       358    1        7.47329321       6.49924704       7.84692681
       359    2        5.86517394       7.42769499       7.20115390
       360    2        7.47329321       6.49924704       9.82115582
       361    1        4.25702867      10.21308339      15.74881034
       362    1        5.86514795       9.28463544      13.12880842
       363    2        4.25702867      10.21308339      12.48303551
       364    2        5.86514795       9.28463544      15.10303743
       365    1        4.25702867      10.21308339      26.24969402
       366    1        5.86514795       9.28463544      23.62969210
       367    2        4.25702867      10.21308339      22.98391920
       368    2        5.86514795       9.28463544      25.60392111
       369    1        4.25702867      10.21308339      31.46869609
       370    1        5.86514795       9.28463544      28.84869417
       371    2        4.25702867      10.21308339      28.20292126
       372    2        5.86514795       9.28463544      30.82292318
       373    1        4.25702867      10.21308339      41.96957977
       374    1        5.86514795       9.28463544      39.34957785
       375    2        4.25702867      10.21308339      38.70380495
       376    2        5.86514795       9.28463544      41.32380686
       377    1        4.25702867      10.21308339      36.68769816
       378    1        5.86514795       9.28463544      34.06769624
       379    2        4.25702867      10.21308339      33.42192333
       380    2        5.86514795       9.28463544      36.04192525
       381    1        4.25702867      10.21308339      47.18858184
       382    1        5.86514795       9.28463544      44.56857992
       383    2        4.25702867      10.21308339      43.92280701
       384    2        5.86514795       9.28463544      46.54280893
       385    1        4.25702867      10.21308339      52.40758391
       386    1        5.86514795       9.28463544      49.78758199
       387    2        4.25702867      10.21308339      49.14180908
       388    2        5.86514795       9.28463544      51.76181100
       389    1        4.25702867      10.21308339       0.02892459
       390    1        5.86514795       9.28463544      60.28846567
       391    2        4.25702867      10.21308339      59.64269276
       392    2        5.86514795       9.28463544      62.26269468
       393    1        4.25702867      10.21308339      57.68946552
       394    1        5.86514795       9.28463544      55.06946360
       395    2        4.25702867      10.21308339      54.42369070
       396    2        5.86514795       9.28463544      57.04369261
       397    1        4.25702867      10.21308339      10.52980827
       398    1        5.86514795       9.28463544       7.90980635
       399    2        4.25702867      10.21308339       7.26403345
       400    2        5.86514795       9.28463544       9.88403536
       401    1        4.25702867      10.21308339       5.24792666
       402    1        5.86514795       9.28463544       2.62792474
       403    2        4.25702867      10.21308339       1.98215183
       404    2        5.86514795       9.28463544       4.60215375
       405    1        4.25702867      10.21308339      20.96781241
       406    1        5.86514795       9.28463544      18.34781049
       407    2        4.25702867      10.21308339      17.70203758
       408    2        5.86514795       9.28463544      20.32203950
       409    1        2.64888341      12.99847180      31.46869609
       410    1        4.25700268      12.07002385      28.84869417
       411    2        2.64888341      12.99847180      28.20292126
       412    2        4.25700268      12.07002385      30.82292318
       413    1        2.64888341      12.99847180      41.96957977
       414    1        4.25700268      12.07002385      39.34957785
       415    2        2.64888341      12.99847180      38.70380495
       416    2        4.25700268      12.07002385      41.32380686
       417    1        2.64888341      12.99847180      47.18858184
       418    1        4.25700268      12.07002385      44.56857992
       419    2        2.64888341      12.99847180      43.92280701
       420    2        4.25700268      12.07002385      46.54280893
       421    1        2.64888341      12.99847180      57.68946552
       422    1        4.25700268      12.07002385      55.06946360
       423    2        2.64888341      12.99847180      54.42369070
       424    2        4.25700268      12.07002385      57.04369261
       425    1        2.64888341      12.99847180      52.40758391
       426    1        4.25700268      12.07002385      49.78758199
       427    2        2.64888341      12.99847180      49.14180908
       428    2        4.25700268      12.07002385      51.76181100
       429    1        2.64888341      12.99847180       0.02892459