 # XCrySDen XSF file
 
        6105  atoms
           2  atom types
 
      7.000000000000      48.000000000000  xlo xhi
     -2.000000000000      33.860001000000  ylo yhi
     -0.648250000000      69.362750000000  zlo zhi
 
Masses
 
            1   69.72300000             # Ga
            2   14.00700000             # N
 
Atoms # atomic
 
         1    1       12.876066000000       9.558000000000       0.000000000000
         2    1       12.876066000000       9.558000000000      67.417999000000
         3    1       12.876066000000       9.558000000000       5.186000000000
         4    1       12.876066000000       9.558000000000      10.372000000000
         5    1       12.876066000000       9.558000000000      15.558000000000
         6    1       12.876066000000       9.558000000000      20.744000000000
         7    1       12.876066000000       9.558000000000      25.930000000000
         8    1       12.876066000000       9.558000000000      31.116000000000
         9    1       12.876066000000       9.558000000000      36.302000000000
        10    1       12.876066000000       9.558000000000      41.488000000000
        11    1       12.876066000000       9.558000000000      46.673999000000
        12    1       12.876066000000       9.558000000000      51.859999000000
        13    1       12.876066000000       9.558000000000      57.045999000000
        14    1       12.876066000000       9.558000000000      62.231999000000
        15    1       12.876066000000      12.744001000000       0.000000000000
        16    1       12.876066000000      12.744001000000      67.417999000000
        17    1       12.876066000000      12.744001000000       5.186000000000
        18    1       12.876066000000      12.744001000000      10.372000000000
        19    1       12.876066000000      12.744001000000      15.558000000000
        20    1       12.876066000000      12.744001000000      20.744000000000
        21    1       12.876066000000      12.744001000000      25.930000000000
        22    1       12.876066000000      12.744001000000      31.116000000000
        23    1       12.876066000000      12.744001000000      36.302000000000
        24    1       12.876066000000      12.744001000000      41.488000000000
        25    1       12.876066000000      12.744001000000      46.673999000000
        26    1       12.876066000000      12.744001000000      51.859999000000
        27    1       12.876066000000      12.744001000000      57.045999000000
        28    1       12.876066000000      12.744001000000      62.231999000000
        29    1       12.876066000000      15.930001000000       0.000000000000
        30    1       12.876066000000      15.930001000000      67.417999000000
        31    1       12.876066000000      15.930001000000       5.186000000000
        32    1       12.876066000000      15.930001000000      10.372000000000
        33    1       12.876066000000      15.930001000000      15.558000000000
        34    1       12.876066000000      15.930001000000      20.744000000000
        35    1       12.876066000000      15.930001000000      25.930000000000
        36    1       12.876066000000      15.930001000000      31.116000000000
        37    1       12.876066000000      15.930001000000      36.302000000000
        38    1       12.876066000000      15.930001000000      41.488000000000
        39    1       12.876066000000      15.930001000000      46.673999000000
        40    1       12.876066000000      15.930001000000      51.859999000000
        41    1       12.876066000000      15.930001000000      57.045999000000
        42    1       12.876066000000      15.930001000000      62.231999000000
        43    1       12.876066000000      19.116001000000       0.000000000000
        44    1       12.876066000000      19.116001000000      67.417999000000
        45    1       12.876066000000      19.116001000000       5.186000000000
        46    1       12.876066000000      19.116001000000      10.372000000000
        47    1       12.876066000000      19.116001000000      15.558000000000
        48    1       12.876066000000      19.116001000000      20.744000000000
        49    1       12.876066000000      19.116001000000      25.930000000000
        50    1       12.876066000000      19.116001000000      31.116000000000
        51    1       12.876066000000      19.116001000000      36.302000000000
        52    1       12.876066000000      19.116001000000      41.488000000000
        53    1       12.876066000000      19.116001000000      46.673999000000
        54    1       12.876066000000      19.116001000000      51.859999000000
        55    1       12.876066000000      19.116001000000      57.045999000000
        56    1       12.876066000000      19.116001000000      62.231999000000
        57    1       12.876066000000      22.302001000000       0.000000000000
        58    1       12.876066000000      22.302001000000      67.417999000000
        59    1       12.876066000000      22.302001000000       5.186000000000
        60    1       12.876066000000      22.302001000000      10.372000000000
        61    1       12.876066000000      22.302001000000      15.558000000000
        62    1       12.876066000000      22.302001000000      20.744000000000
        63    1       12.876066000000      22.302001000000      25.930000000000
        64    1       12.876066000000      22.302001000000      31.116000000000
        65    1       12.876066000000      22.302001000000      36.302000000000
        66    1       12.876066000000      22.302001000000      41.488000000000
        67    1       12.876066000000      22.302001000000      46.673999000000
        68    1       12.876066000000      22.302001000000      51.859999000000
        69    1       12.876066000000      22.302001000000      57.045999000000
        70    1       12.876066000000      22.302001000000      62.231999000000
        71    1       18.394380000000       0.000000000000       0.000000000000
        72    1       18.394380000000       0.000000000000      67.417999000000
        73    1       18.394380000000       0.000000000000       5.186000000000
        74    1       18.394380000000       0.000000000000      10.372000000000
        75    1       18.394380000000       0.000000000000      15.558000000000
        76    1       18.394380000000       0.000000000000      20.744000000000
        77    1       18.394380000000       0.000000000000      25.930000000000
        78    1       18.394380000000       0.000000000000      31.116000000000
        79    1       18.394380000000       0.000000000000      36.302000000000
        80    1       18.394380000000       0.000000000000      41.488000000000
        81    1       18.394380000000       0.000000000000      46.673999000000
        82    1       18.394380000000       0.000000000000      51.859999000000
        83    1       18.394380000000       0.000000000000      57.045999000000
        84    1       18.394380000000       0.000000000000      62.231999000000
        85    1       18.394380000000       3.186000000000       0.000000000000
        86    1       18.394380000000       3.186000000000      67.417999000000
        87    1       18.394380000000       3.186000000000       5.186000000000
        88    1       18.394380000000       3.186000000000      10.372000000000
        89    1       18.394380000000       3.186000000000      15.558000000000
        90    1       18.394380000000       3.186000000000      20.744000000000
        91    1       18.394380000000       3.186000000000      25.930000000000
        92    1       18.394380000000       3.186000000000      31.116000000000
        93    1       18.394380000000       3.186000000000      36.302000000000
        94    1       18.394380000000       3.186000000000      41.488000000000
        95    1       18.394380000000       3.186000000000      46.673999000000
        96    1       18.394380000000       3.186000000000      51.859999000000
        97    1       18.394380000000       3.186000000000      57.045999000000
        98    1       18.394380000000       3.186000000000      62.231999000000
        99    1       18.394380000000       6.372000000000       0.000000000000
       100    1       18.394380000000       6.372000000000      67.417999000000
       101    1       18.394380000000       6.372000000000       5.186000000000
       102    1       18.394380000000       6.372000000000      10.372000000000
       103    1       18.394380000000       6.372000000000      15.558000000000
       104    1       18.394380000000       6.372000000000      20.744000000000
       105    1       18.394380000000       6.372000000000      25.930000000000
       106    1       18.394380000000       6.372000000000      31.116000000000
       107    1       18.394380000000       6.372000000000      36.302000000000
       108    1       18.394380000000       6.372000000000      41.488000000000
       109    1       18.394380000000       6.372000000000      46.673999000000
       110    1       18.394380000000       6.372000000000      51.859999000000
       111    1       18.394380000000       6.372000000000      57.045999000000
       112    1       18.394380000000       6.372000000000      62.231999000000
       113    1       18.394380000000       9.558000000000       0.000000000000
       114    1       18.394380000000       9.558000000000      67.417999000000
       115    1       18.394380000000       9.558000000000       5.186000000000
       116    1       18.394380000000       9.558000000000      10.372000000000
       117    1       18.394380000000       9.558000000000      15.558000000000
       118    1       18.394380000000       9.558000000000      20.744000000000
       119    1       18.394380000000       9.558000000000      25.930000000000
       120    1       18.394380000000       9.558000000000      31.116000000000
       121    1       18.394380000000       9.558000000000      36.302000000000
       122    1       18.394380000000       9.558000000000      41.488000000000
       123    1       18.394380000000       9.558000000000      46.673999000000
       124    1       18.394380000000       9.558000000000      51.859999000000
       125    1       18.394380000000       9.558000000000      57.045999000000
       126    1       18.394380000000       9.558000000000      62.231999000000
       127    1       18.394380000000      12.744001000000       0.000000000000
       128    1       18.394380000000      12.744001000000      67.417999000000
       129    1       18.394380000000      12.744001000000       5.186000000000
       130    1       18.394380000000      12.744001000000      10.372000000000
       131    1       18.394380000000      12.744001000000      15.558000000000
       132    1       18.394380000000      12.744001000000      20.744000000000
       133    1       18.394380000000      12.744001000000      25.930000000000
       134    1       18.394380000000      12.744001000000      31.116000000000
       135    1       18.394380000000      12.744001000000      36.302000000000
       136    1       18.394380000000      12.744001000000      41.488000000000
       137    1       18.394380000000      12.744001000000      46.673999000000
       138    1       18.394380000000      12.744001000000      51.859999000000
       139    1       18.394380000000      12.744001000000      57.045999000000
       140    1       18.394380000000      12.744001000000      62.231999000000
       141    1       18.394380000000      15.930001000000       0.000000000000
       142    1       18.394380000000      15.930001000000      67.417999000000
       143    1       18.394380000000      15.930001000000       5.186000000000
       144    1       18.394380000000      15.930001000000      10.372000000000
       145    1       18.394380000000      15.930001000000      15.558000000000
       146    1       18.394380000000      15.930001000000      20.744000000000
       147    1       18.394380000000      15.930001000000      25.930000000000
       148    1       18.394380000000      15.930001000000      31.116000000000
       149    1       18.394380000000      15.930001000000      36.302000000000
       150    1       18.394380000000      15.930001000000      41.488000000000
       151    1       18.394380000000      15.930001000000      46.673999000000
       152    1       18.394380000000      15.930001000000      51.859999000000
       153    1       18.394380000000      15.930001000000      57.045999000000
       154    1       18.394380000000      15.930001000000      62.231999000000
       155    1       18.394380000000      19.116001000000       0.000000000000
       156    1       18.394380000000      19.116001000000      67.417999000000
       157    1       18.394380000000      19.116001000000       5.186000000000
       158    1       18.394380000000      19.116001000000      10.372000000000
       159    1       18.394380000000      19.116001000000      15.558000000000
       160    1       18.394380000000      19.116001000000      20.744000000000
       161    1       18.394380000000      19.116001000000      25.930000000000
       162    1       18.394380000000      19.116001000000      31.116000000000
       163    1       18.394380000000      19.116001000000      36.302000000000
       164    1       18.394380000000      19.116001000000      41.488000000000
       165    1       18.394380000000      19.116001000000      46.673999000000
       166    1       18.394380000000      19.116001000000      51.859999000000
       167    1       18.394380000000      19.116001000000      57.045999000000
       168    1       18.394380000000      19.116001000000      62.231999000000
       169    1       18.394380000000      22.302001000000       0.000000000000
       170    1       18.394380000000      22.302001000000      67.417999000000
       171    1       18.394380000000      22.302001000000       5.186000000000
       172    1       18.394380000000      22.302001000000      10.372000000000
       173    1       18.394380000000      22.302001000000      15.558000000000
       174    1       18.394380000000      22.302001000000      20.744000000000
       175    1       18.394380000000      22.302001000000      25.930000000000
       176    1       18.394380000000      22.302001000000      31.116000000000
       177    1       18.394380000000      22.302001000000      36.302000000000
       178    1       18.394380000000      22.302001000000      41.488000000000
       179    1       18.394380000000      22.302001000000      46.673999000000
       180    1       18.394380000000      22.302001000000      51.859999000000
       181    1       18.394380000000      22.302001000000      57.045999000000
       182    1       18.394380000000      22.302001000000      62.231999000000
       183    1       18.394380000000      25.488001000000       0.000000000000
       184    1       18.394380000000      25.488001000000      67.417999000000
       185    1       18.394380000000      25.488001000000       5.186000000000
       186    1       18.394380000000      25.488001000000      10.372000000000
       187    1       18.394380000000      25.488001000000      15.558000000000
       188    1       18.394380000000      25.488001000000      20.744000000000
       189    1       18.394380000000      25.488001000000      25.930000000000
       190    1       18.394380000000      25.488001000000      31.116000000000
       191    1       18.394380000000      25.488001000000      36.302000000000
       192    1       18.394380000000      25.488001000000      41.488000000000
       193    1       18.394380000000      25.488001000000      46.673999000000
       194    1       18.394380000000      25.488001000000      51.859999000000
       195    1       18.394380000000      25.488001000000      57.045999000000
       196    1       18.394380000000      25.488001000000      62.231999000000
       197    1       18.394380000000      28.674001000000       0.000000000000
       198    1       18.394380000000      28.674001000000      67.417999000000
       199    1       18.394380000000      28.674001000000       5.186000000000
       200    1       18.394380000000      28.674001000000      10.372000000000
       201    1       18.394380000000      28.674001000000      15.558000000000
       202    1       18.394380000000      28.674001000000      20.744000000000
       203    1       18.394380000000      28.674001000000      25.930000000000
       204    1       18.394380000000      28.674001000000      31.116000000000
       205    1       18.394380000000      28.674001000000      36.302000000000
       206    1       18.394380000000      28.674001000000      41.488000000000
       207    1       18.394380000000      28.674001000000      46.673999000000
       208    1       18.394380000000      28.674001000000      51.859999000000
       209    1       18.394380000000      28.674001000000      57.045999000000
       210    1       18.394380000000      28.674001000000      62.231999000000
       211    1       18.394380000000      31.860001000000       0.000000000000
       212    1       18.394380000000      31.860001000000      67.417999000000
       213    1       18.394380000000      31.860001000000       5.186000000000
       214    1       18.394380000000      31.860001000000      10.372000000000
       215    1       18.394380000000      31.860001000000      15.558000000000
       216    1       18.394380000000      31.860001000000      20.744000000000
       217    1       18.394380000000      31.860001000000      25.930000000000
       218    1       18.394380000000      31.860001000000      31.116000000000
       219    1       18.394380000000      31.860001000000      36.302000000000
       220    1       18.394380000000      31.860001000000      41.488000000000
       221    1       18.394380000000      31.860001000000      46.673999000000
       222    1       18.394380000000      31.860001000000      51.859999000000
       223    1       18.394380000000      31.860001000000      57.045999000000
       224    1       18.394380000000      31.860001000000      62.231999000000
       225    1       23.912694000000       0.000000000000       0.000000000000
       226    1       23.912694000000       0.000000000000      67.417999000000
       227    1       23.912694000000       0.000000000000       5.186000000000
       228    1       23.912694000000       0.000000000000      10.372000000000
       229    1       23.912694000000       0.000000000000      15.558000000000
       230    1       23.912694000000       0.000000000000      20.744000000000
       231    1       23.912694000000       0.000000000000      25.930000000000
       232    1       23.912694000000       0.000000000000      31.116000000000
       233    1       23.912694000000       0.000000000000      36.302000000000
       234    1       23.912694000000       0.000000000000      41.488000000000
       235    1       23.912694000000       0.000000000000      46.673999000000
       236    1       23.912694000000       0.000000000000      51.859999000000
       237    1       23.912694000000       0.000000000000      57.045999000000
       238    1       23.912694000000       0.000000000000      62.231999000000
       239    1       23.912694000000       3.186000000000       0.000000000000
       240    1       23.912694000000       3.186000000000      67.417999000000
       241    1       23.912694000000       3.186000000000       5.186000000000
       242    1       23.912694000000       3.186000000000      10.372000000000
       243    1       23.912694000000       3.186000000000      15.558000000000
       244    1       23.912694000000       3.186000000000      20.744000000000
       245    1       23.912694000000       3.186000000000      25.930000000000
       246    1       23.912694000000       3.186000000000      31.116000000000
       247    1       23.912694000000       3.186000000000      36.302000000000
       248    1       23.912694000000       3.186000000000      41.488000000000
       249    1       23.912694000000       3.186000000000      46.673999000000
       250    1       23.912694000000       3.186000000000      51.859999000000
       251    1       23.912694000000       3.186000000000      57.045999000000
       252    1       23.912694000000       3.186000000000      62.231999000000
       253    1       23.912694000000       6.372000000000       0.000000000000
       254    1       23.912694000000       6.372000000000      67.417999000000
       255    1       23.912694000000       6.372000000000       5.186000000000
       256    1       23.912694000000       6.372000000000      10.372000000000
       257    1       23.912694000000       6.372000000000      15.558000000000
       258    1       23.912694000000       6.372000000000      20.744000000000
       259    1       23.912694000000       6.372000000000      25.930000000000
       260    1       23.912694000000       6.372000000000      31.116000000000
       261    1       23.912694000000       6.372000000000      36.302000000000
       262    1       23.912694000000       6.372000000000      41.488000000000
       263    1       23.912694000000       6.372000000000      46.673999000000
       264    1       23.912694000000       6.372000000000      51.859999000000
       265    1       23.912694000000       6.372000000000      57.045999000000
       266    1       23.912694000000       6.372000000000      62.231999000000
       267    1       23.912694000000       9.558000000000       0.000000000000
       268    1       23.912694000000       9.558000000000      67.417999000000
       269    1       23.912694000000       9.558000000000       5.186000000000
       270    1       23.912694000000       9.558000000000      10.372000000000
       271    1       23.912694000000       9.558000000000      15.558000000000
       272    1       23.912694000000       9.558000000000      20.744000000000
       273    1       23.912694000000       9.558000000000      25.930000000000
       274    1       23.912694000000       9.558000000000      31.116000000000
       275    1       23.912694000000       9.558000000000      36.302000000000
       276    1       23.912694000000       9.558000000000      41.488000000000
       277    1       23.912694000000       9.558000000000      46.673999000000
       278    1       23.912694000000       9.558000000000      51.859999000000
       279    1       23.912694000000       9.558000000000      57.045999000000
       280    1       23.912694000000       9.558000000000      62.231999000000
       281    1       23.912694000000      12.744001000000       0.000000000000
       282    1       23.912694000000      12.744001000000      67.417999000000
       283    1       23.912694000000      12.744001000000       5.186000000000
       284    1       23.912694000000      12.744001000000      10.372000000000
       285    1       23.912694000000      12.744001000000      15.558000000000
       286    1       23.912694000000      12.744001000000      20.744000000000
       287    1       23.912694000000      12.744001000000      25.930000000000
       288    1       23.912694000000      12.744001000000      31.116000000000
       289    1       23.912694000000      12.744001000000      36.302000000000
       290    1       23.912694000000      12.744001000000      41.488000000000
       291    1       23.912694000000      12.744001000000      46.673999000000
       292    1       23.912694000000      12.744001000000      51.859999000000
       293    1       23.912694000000      12.744001000000      57.045999000000
       294    1       23.912694000000      12.744001000000      62.231999000000
       295    1       23.912694000000      15.930001000000       0.000000000000
       296    1       23.912694000000      15.930001000000      67.417999000000
       297    1       23.912694000000      15.930001000000       5.186000000000
       298    1       23.912694000000      15.930001000000      10.372000000000
       299    1       23.912694000000      15.930001000000      15.558000000000
       300    1       23.912694000000      15.930001000000      20.744000000000
       301    1       23.912694000000      15.930001000000      25.930000000000
       302    1       23.912694000000      15.930001000000      31.116000000000
       303    1       23.912694000000      15.930001000000      36.302000000000
       304    1       23.912694000000      15.930001000000      41.488000000000
       305    1       23.912694000000      15.930001000000      46.673999000000
       306    1       23.912694000000      15.930001000000      51.859999000000
       307    1       23.912694000000      15.930001000000      57.045999000000
       308    1       23.912694000000      15.930001000000      62.231999000000
       309    1       23.912694000000      19.116001000000       0.000000000000
       310    1       23.912694000000      19.116001000000      67.417999000000
       311    1       23.912694000000      19.116001000000       5.186000000000
       312    1       23.912694000000      19.116001000000      10.372000000000
       313    1       23.912694000000      19.116001000000      15.558000000000
       314    1       23.912694000000      19.116001000000      20.744000000000
       315    1       23.912694000000      19.116001000000      25.930000000000
       316    1       23.912694000000      19.116001000000      31.116000000000
       317    1       23.912694000000      19.116001000000      36.302000000000
       318    1       23.912694000000      19.116001000000      41.488000000000
       319    1       23.912694000000      19.116001000000      46.673999000000
       320    1       23.912694000000      19.116001000000      51.859999000000
       321    1       23.912694000000      19.116001000000      57.045999000000
       322    1       23.912694000000      19.116001000000      62.231999000000
       323    1       23.912694000000      22.302001000000       0.000000000000
       324    1       23.912694000000      22.302001000000      67.417999000000
       325    1       23.912694000000      22.302001000000       5.186000000000
       326    1       23.912694000000      22.302001000000      10.372000000000
       327    1       23.912694000000      22.302001000000      15.558000000000
       328    1       23.912694000000      22.302001000000      20.744000000000
       329    1       23.912694000000      22.302001000000      25.930000000000
       330    1       23.912694000000      22.302001000000      31.116000000000
       331    1       23.912694000000      22.302001000000      36.302000000000
       332    1       23.912694000000      22.302001000000      41.488000000000
       333    1       23.912694000000      22.302001000000      46.673999000000
       334    1       23.912694000000      22.302001000000      51.859999000000
       335    1       23.912694000000      22.302001000000      57.045999000000
       336    1       23.912694000000      22.302001000000      62.231999000000
       337    1       23.912694000000      25.488001000000       0.000000000000
       338    1       23.912694000000      25.488001000000      67.417999000000
       339    1       23.912694000000      25.488001000000       5.186000000000
       340    1       23.912694000000      25.488001000000      10.372000000000
       341    1       23.912694000000      25.488001000000      15.558000000000
       342    1       23.912694000000      25.488001000000      20.744000000000
       343    1       23.912694000000      25.488001000000      25.930000000000
       344    1       23.912694000000      25.488001000000      31.116000000000
       345    1       23.912694000000      25.488001000000      36.302000000000
       346    1       23.912694000000      25.488001000000      41.488000000000
       347    1       23.912694000000      25.488001000000      46.673999000000
       348    1       23.912694000000      25.488001000000      51.859999000000
       349    1       23.912694000000      25.488001000000      57.045999000000
       350    1       23.912694000000      25.488001000000      62.231999000000
       351    1       23.912694000000      28.674001000000       0.000000000000
       352    1       23.912694000000      28.674001000000      67.417999000000
       353    1       23.912694000000      28.674001000000       5.186000000000
       354    1       23.912694000000      28.674001000000      10.372000000000
       355    1       23.912694000000      28.674001000000      15.558000000000
       356    1       23.912694000000      28.674001000000      20.744000000000
       357    1       23.912694000000      28.674001000000      25.930000000000
       358    1       23.912694000000      28.674001000000      31.116000000000
       359    1       23.912694000000      28.674001000000      36.302000000000
       360    1       23.912694000000      28.674001000000      41.488000000000
       361    1       23.912694000000      28.674001000000      46.673999000000
       362    1       23.912694000000      28.674001000000      51.859999000000
       363    1       23.912694000000      28.674001000000      57.045999000000
       364    1       23.912694000000      28.674001000000      62.231999000000
       365    1       23.912694000000      31.860001000000       0.000000000000