 # XCrySDen XSF file
 
        4491  atoms
           2  atom types
 
     -2.648250000000      35.060750000000  xlo xhi
     -2.000000000000      40.232002000000  ylo yhi
     -0.919719000000      72.657781000000  zlo zhi
 
Masses
 
            1   69.72300000             # Ga
            2   14.00700000             # N
 
Atoms # atomic
 
         1    1        0.000000000000       0.000000000000       1.839438000000
         2    1        0.000000000000      38.232002000000       1.839438000000
         3    1        0.000000000000       0.000000000000       7.357752000000
         4    1        0.000000000000      38.232002000000       7.357752000000
         5    1        0.000000000000       0.000000000000      12.876066000000
         6    1        0.000000000000      38.232002000000      12.876066000000
         7    1        0.000000000000       0.000000000000      18.394380000000
         8    1        0.000000000000      38.232002000000      18.394380000000
         9    1        0.000000000000       0.000000000000      23.912694000000
        10    1        0.000000000000      38.232002000000      23.912694000000
        11    1        0.000000000000       0.000000000000      29.431008000000
        12    1        0.000000000000      38.232002000000      29.431008000000
        13    1        0.000000000000       0.000000000000      34.949322000000
        14    1        0.000000000000      38.232002000000      34.949322000000
        15    1        0.000000000000       0.000000000000      40.467637000000
        16    1        0.000000000000      38.232002000000      40.467637000000
        17    1        0.000000000000       0.000000000000      45.985951000000
        18    1        0.000000000000      38.232002000000      45.985951000000
        19    1        0.000000000000       0.000000000000      51.504265000000
        20    1        0.000000000000      38.232002000000      51.504265000000
        21    1        0.000000000000       0.000000000000      57.022579000000
        22    1        0.000000000000      38.232002000000      57.022579000000
        23    1        0.000000000000       0.000000000000      62.540893000000
        24    1        0.000000000000      38.232002000000      62.540893000000
        25    1        0.000000000000       0.000000000000      68.059207000000
        26    1        0.000000000000      38.232002000000      68.059207000000
        27    1        0.000000000000       3.186000000000       1.839438000000
        28    1        0.000000000000       3.186000000000       7.357752000000
        29    1        0.000000000000       3.186000000000      12.876066000000
        30    1        0.000000000000       3.186000000000      18.394380000000
        31    1        0.000000000000       3.186000000000      23.912694000000
        32    1        0.000000000000       3.186000000000      29.431008000000
        33    1        0.000000000000       3.186000000000      34.949322000000
        34    1        0.000000000000       3.186000000000      40.467637000000
        35    1        0.000000000000       3.186000000000      45.985951000000
        36    1        0.000000000000       3.186000000000      51.504265000000
        37    1        0.000000000000       3.186000000000      57.022579000000
        38    1        0.000000000000       3.186000000000      62.540893000000
        39    1        0.000000000000       3.186000000000      68.059207000000
        40    1        0.000000000000       6.372000000000       1.839438000000
        41    1        0.000000000000       6.372000000000       7.357752000000
        42    1        0.000000000000       6.372000000000      12.876066000000
        43    1        0.000000000000       6.372000000000      18.394380000000
        44    1        0.000000000000       6.372000000000      23.912694000000
        45    1        0.000000000000       6.372000000000      29.431008000000
        46    1        0.000000000000       6.372000000000      34.949322000000
        47    1        0.000000000000       6.372000000000      40.467637000000
        48    1        0.000000000000       6.372000000000      45.985951000000
        49    1        0.000000000000       6.372000000000      51.504265000000
        50    1        0.000000000000       6.372000000000      57.022579000000
        51    1        0.000000000000       6.372000000000      62.540893000000
        52    1        0.000000000000       6.372000000000      68.059207000000
        53    1        0.000000000000       9.558001000000       1.839438000000
        54    1        0.000000000000       9.558001000000       7.357752000000
        55    1        0.000000000000       9.558001000000      12.876066000000
        56    1        0.000000000000       9.558001000000      18.394380000000
        57    1        0.000000000000       9.558001000000      23.912694000000
        58    1        0.000000000000       9.558001000000      29.431008000000
        59    1        0.000000000000       9.558001000000      34.949322000000
        60    1        0.000000000000       9.558001000000      40.467637000000
        61    1        0.000000000000       9.558001000000      45.985951000000
        62    1        0.000000000000       9.558001000000      51.504265000000
        63    1        0.000000000000       9.558001000000      57.022579000000
        64    1        0.000000000000       9.558001000000      62.540893000000
        65    1        0.000000000000       9.558001000000      68.059207000000
        66    1        0.000000000000      12.744001000000       1.839438000000
        67    1        0.000000000000      12.744001000000       7.357752000000
        68    1        0.000000000000      12.744001000000      12.876066000000
        69    1        0.000000000000      12.744001000000      18.394380000000
        70    1        0.000000000000      12.744001000000      23.912694000000
        71    1        0.000000000000      12.744001000000      29.431008000000
        72    1        0.000000000000      12.744001000000      34.949322000000
        73    1        0.000000000000      12.744001000000      40.467637000000
        74    1        0.000000000000      12.744001000000      45.985951000000
        75    1        0.000000000000      12.744001000000      51.504265000000
        76    1        0.000000000000      12.744001000000      57.022579000000
        77    1        0.000000000000      12.744001000000      62.540893000000
        78    1        0.000000000000      12.744001000000      68.059207000000
        79    1        0.000000000000      15.930001000000       1.839438000000
        80    1        0.000000000000      15.930001000000       7.357752000000
        81    1        0.000000000000      15.930001000000      12.876066000000
        82    1        0.000000000000      15.930001000000      18.394380000000
        83    1        0.000000000000      15.930001000000      23.912694000000
        84    1        0.000000000000      15.930001000000      29.431008000000
        85    1        0.000000000000      15.930001000000      34.949322000000
        86    1        0.000000000000      15.930001000000      40.467637000000
        87    1        0.000000000000      15.930001000000      45.985951000000
        88    1        0.000000000000      15.930001000000      51.504265000000
        89    1        0.000000000000      15.930001000000      57.022579000000
        90    1        0.000000000000      15.930001000000      62.540893000000
        91    1        0.000000000000      15.930001000000      68.059207000000
        92    1        0.000000000000      19.116001000000       1.839438000000
        93    1       31.115999000000      19.116001000000       1.839438000000
        94    1        0.000000000000      19.116001000000       7.357752000000
        95    1       31.115999000000      19.116001000000       7.357752000000
        96    1        0.000000000000      19.116001000000      12.876066000000
        97    1       31.115999000000      19.116001000000      12.876066000000
        98    1        0.000000000000      19.116001000000      18.394380000000
        99    1       31.115999000000      19.116001000000      18.394380000000
       100    1        0.000000000000      19.116001000000      23.912694000000
       101    1       31.115999000000      19.116001000000      23.912694000000
       102    1        0.000000000000      19.116001000000      29.431008000000
       103    1       31.115999000000      19.116001000000      29.431008000000
       104    1        0.000000000000      19.116001000000      34.949322000000
       105    1       31.115999000000      19.116001000000      34.949322000000
       106    1        0.000000000000      19.116001000000      40.467637000000
       107    1       31.115999000000      19.116001000000      40.467637000000
       108    1        0.000000000000      19.116001000000      45.985951000000
       109    1       31.115999000000      19.116001000000      45.985951000000
       110    1        0.000000000000      19.116001000000      51.504265000000
       111    1       31.115999000000      19.116001000000      51.504265000000
       112    1        0.000000000000      19.116001000000      57.022579000000
       113    1       31.115999000000      19.116001000000      57.022579000000
       114    1        0.000000000000      19.116001000000      62.540893000000
       115    1       31.115999000000      19.116001000000      62.540893000000
       116    1        0.000000000000      19.116001000000      68.059207000000
       117    1       31.115999000000      19.116001000000      68.059207000000
       118    1        0.000000000000      22.302001000000       1.839438000000
       119    1        0.000000000000      22.302001000000       7.357752000000
       120    1        0.000000000000      22.302001000000      12.876066000000
       121    1        0.000000000000      22.302001000000      18.394380000000
       122    1        0.000000000000      22.302001000000      23.912694000000
       123    1        0.000000000000      22.302001000000      29.431008000000
       124    1        0.000000000000      22.302001000000      34.949322000000
       125    1        0.000000000000      22.302001000000      40.467637000000
       126    1        0.000000000000      22.302001000000      45.985951000000
       127    1        0.000000000000      22.302001000000      51.504265000000
       128    1        0.000000000000      22.302001000000      57.022579000000
       129    1        0.000000000000      22.302001000000      62.540893000000
       130    1        0.000000000000      22.302001000000      68.059207000000
       131    1        0.000000000000      25.488002000000       1.839438000000
       132    1        0.000000000000      25.488002000000       7.357752000000
       133    1        0.000000000000      25.488002000000      12.876066000000
       134    1        0.000000000000      25.488002000000      18.394380000000
       135    1        0.000000000000      25.488002000000      23.912694000000
       136    1        0.000000000000      25.488002000000      29.431008000000
       137    1        0.000000000000      25.488002000000      34.949322000000
       138    1        0.000000000000      25.488002000000      40.467637000000
       139    1        0.000000000000      25.488002000000      45.985951000000
       140    1        0.000000000000      25.488002000000      51.504265000000
       141    1        0.000000000000      25.488002000000      57.022579000000
       142    1        0.000000000000      25.488002000000      62.540893000000
       143    1        0.000000000000      25.488002000000      68.059207000000
       144    1        0.000000000000      28.674002000000       1.839438000000
       145    1        0.000000000000      28.674002000000       7.357752000000
       146    1        0.000000000000      28.674002000000      12.876066000000
       147    1        0.000000000000      28.674002000000      18.394380000000
       148    1        0.000000000000      28.674002000000      23.912694000000
       149    1        0.000000000000      28.674002000000      29.431008000000
       150    1        0.000000000000      28.674002000000      34.949322000000
       151    1        0.000000000000      28.674002000000      40.467637000000
       152    1        0.000000000000      28.674002000000      45.985951000000
       153    1        0.000000000000      28.674002000000      51.504265000000
       154    1        0.000000000000      28.674002000000      57.022579000000
       155    1        0.000000000000      28.674002000000      62.540893000000
       156    1        0.000000000000      28.674002000000      68.059207000000
       157    1        0.000000000000      31.860002000000       1.839438000000
       158    1        0.000000000000      31.860002000000       7.357752000000
       159    1        0.000000000000      31.860002000000      12.876066000000
       160    1        0.000000000000      31.860002000000      18.394380000000
       161    1        0.000000000000      31.860002000000      23.912694000000
       162    1        0.000000000000      31.860002000000      29.431008000000
       163    1        0.000000000000      31.860002000000      34.949322000000
       164    1        0.000000000000      31.860002000000      40.467637000000
       165    1        0.000000000000      31.860002000000      45.985951000000
       166    1        0.000000000000      31.860002000000      51.504265000000
       167    1        0.000000000000      31.860002000000      57.022579000000
       168    1        0.000000000000      31.860002000000      62.540893000000
       169    1        0.000000000000      31.860002000000      68.059207000000
       170    1        0.000000000000      35.046002000000       1.839438000000
       171    1        0.000000000000      35.046002000000       7.357752000000
       172    1        0.000000000000      35.046002000000      12.876066000000
       173    1        0.000000000000      35.046002000000      18.394380000000
       174    1        0.000000000000      35.046002000000      23.912694000000
       175    1        0.000000000000      35.046002000000      29.431008000000
       176    1        0.000000000000      35.046002000000      34.949322000000
       177    1        0.000000000000      35.046002000000      40.467637000000
       178    1        0.000000000000      35.046002000000      45.985951000000
       179    1        0.000000000000      35.046002000000      51.504265000000
       180    1        0.000000000000      35.046002000000      57.022579000000
       181    1        0.000000000000      35.046002000000      62.540893000000
       182    1        0.000000000000      35.046002000000      68.059207000000
       183    1        5.186000000000       3.186000000000       1.839438000000
       184    1        5.186000000000       3.186000000000       7.357752000000
       185    1        5.186000000000       3.186000000000      12.876066000000
       186    1        5.186000000000       3.186000000000      18.394380000000
       187    1        5.186000000000       3.186000000000      23.912694000000
       188    1        5.186000000000       3.186000000000      29.431008000000
       189    1        5.186000000000       3.186000000000      34.949322000000
       190    1        5.186000000000       3.186000000000      40.467637000000
       191    1        5.186000000000       3.186000000000      45.985951000000
       192    1        5.186000000000       3.186000000000      51.504265000000
       193    1        5.186000000000       3.186000000000      57.022579000000
       194    1        5.186000000000       3.186000000000      62.540893000000
       195    1        5.186000000000       3.186000000000      68.059207000000
       196    1        5.186000000000       6.372000000000       1.839438000000
       197    1        5.186000000000       6.372000000000       7.357752000000
       198    1        5.186000000000       6.372000000000      12.876066000000
       199    1        5.186000000000       6.372000000000      18.394380000000
       200    1        5.186000000000       6.372000000000      23.912694000000
       201    1        5.186000000000       6.372000000000      29.431008000000
       202    1        5.186000000000       6.372000000000      34.949322000000
       203    1        5.186000000000       6.372000000000      40.467637000000
       204    1        5.186000000000       6.372000000000      45.985951000000
       205    1        5.186000000000       6.372000000000      51.504265000000
       206    1        5.186000000000       6.372000000000      57.022579000000
       207    1        5.186000000000       6.372000000000      62.540893000000
       208    1        5.186000000000       6.372000000000      68.059207000000
       209    1        5.186000000000       9.558001000000       1.839438000000
       210    1        5.186000000000       9.558001000000       7.357752000000
       211    1        5.186000000000       9.558001000000      12.876066000000
       212    1        5.186000000000       9.558001000000      18.394380000000
       213    1        5.186000000000       9.558001000000      23.912694000000
       214    1        5.186000000000       9.558001000000      29.431008000000
       215    1        5.186000000000       9.558001000000      34.949322000000
       216    1        5.186000000000       9.558001000000      40.467637000000
       217    1        5.186000000000       9.558001000000      45.985951000000
       218    1        5.186000000000       9.558001000000      51.504265000000
       219    1        5.186000000000       9.558001000000      57.022579000000
       220    1        5.186000000000       9.558001000000      62.540893000000
       221    1        5.186000000000       9.558001000000      68.059207000000
       222    1        5.186000000000      12.744001000000       1.839438000000
       223    1        5.186000000000      12.744001000000       7.357752000000
       224    1        5.186000000000      12.744001000000      12.876066000000
       225    1        5.186000000000      12.744001000000      18.394380000000
       226    1        5.186000000000      12.744001000000      23.912694000000
       227    1        5.186000000000      12.744001000000      29.431008000000
       228    1        5.186000000000      12.744001000000      34.949322000000
       229    1        5.186000000000      12.744001000000      40.467637000000
       230    1        5.186000000000      12.744001000000      45.985951000000
       231    1        5.186000000000      12.744001000000      51.504265000000
       232    1        5.186000000000      12.744001000000      57.022579000000
       233    1        5.186000000000      12.744001000000      62.540893000000
       234    1        5.186000000000      12.744001000000      68.059207000000
       235    1        5.186000000000      15.930001000000       1.839438000000
       236    1        5.186000000000      15.930001000000       7.357752000000
       237    1        5.186000000000      15.930001000000      12.876066000000
       238    1        5.186000000000      15.930001000000      18.394380000000
       239    1        5.186000000000      15.930001000000      23.912694000000
       240    1        5.186000000000      15.930001000000      29.431008000000
       241    1        5.186000000000      15.930001000000      34.949322000000
       242    1        5.186000000000      15.930001000000      40.467637000000
       243    1        5.186000000000      15.930001000000      45.985951000000
       244    1        5.186000000000      15.930001000000      51.504265000000
       245    1        5.186000000000      15.930001000000      57.022579000000
       246    1        5.186000000000      15.930001000000      62.540893000000
       247    1        5.186000000000      15.930001000000      68.059207000000
       248    1        5.186000000000      19.116001000000       1.839438000000
       249    1        5.186000000000      19.116001000000       7.357752000000
       250    1        5.186000000000      19.116001000000      12.876066000000
       251    1        5.186000000000      19.116001000000      18.394380000000
       252    1        5.186000000000      19.116001000000      23.912694000000
       253    1        5.186000000000      19.116001000000      29.431008000000
       254    1        5.186000000000      19.116001000000      34.949322000000
       255    1        5.186000000000      19.116001000000      40.467637000000
       256    1        5.186000000000      19.116001000000      45.985951000000
       257    1        5.186000000000      19.116001000000      51.504265000000
       258    1        5.186000000000      19.116001000000      57.022579000000
       259    1        5.186000000000      19.116001000000      62.540893000000
       260    1        5.186000000000      19.116001000000      68.059207000000
       261    1        5.186000000000      22.302001000000       1.839438000000
       262    1        5.186000000000      22.302001000000       7.357752000000
       263    1        5.186000000000      22.302001000000      12.876066000000
       264    1        5.186000000000      22.302001000000      18.394380000000
       265    1        5.186000000000      22.302001000000      23.912694000000
       266    1        5.186000000000      22.302001000000      29.431008000000
       267    1        5.186000000000      22.302001000000      34.949322000000
       268    1        5.186000000000      22.302001000000      40.467637000000
       269    1        5.186000000000      22.302001000000      45.985951000000
       270    1        5.186000000000      22.302001000000      51.504265000000
       271    1        5.186000000000      22.302001000000      57.022579000000
       272    1        5.186000000000      22.302001000000      62.540893000000
       273    1        5.186000000000      22.302001000000      68.059207000000
       274    1        5.186000000000      25.488002000000       1.839438000000
       275    1        5.186000000000      25.488002000000       7.357752000000
       276    1        5.186000000000      25.488002000000      12.876066000000
       277    1        5.186000000000      25.488002000000      18.394380000000
       278    1        5.186000000000      25.488002000000      23.912694000000
       279    1        5.186000000000      25.488002000000      29.431008000000
       280    1        5.186000000000      25.488002000000      34.949322000000
       281    1        5.186000000000      25.488002000000      40.467637000000
       282    1        5.186000000000      25.488002000000      45.985951000000
       283    1        5.186000000000      25.488002000000      51.504265000000
       284    1        5.186000000000      25.488002000000      57.022579000000
       285    1        5.186000000000      25.488002000000      62.540893000000
       286    1        5.186000000000      25.488002000000      68.059207000000
       287    1        5.186000000000      28.674002000000       1.839438000000
       288    1        5.186000000000      28.674002000000       7.357752000000
       289    1        5.186000000000      28.674002000000      12.876066000000
       290    1        5.186000000000      28.674002000000      18.394380000000
       291    1        5.186000000000      28.674002000000      23.912694000000
       292    1        5.186000000000      28.674002000000      29.431008000000
       293    1        5.186000000000      28.674002000000      34.949322000000
       294    1        5.186000000000      28.674002000000      40.467637000000
       295    1        5.186000000000      28.674002000000      45.985951000000
       296    1        5.186000000000      28.674002000000      51.504265000000
       297    1        5.186000000000      28.674002000000      57.022579000000
       298    1        5.186000000000      28.674002000000      62.540893000000
       299    1        5.186000000000      28.674002000000      68.059207000000
       300    1        5.186000000000      31.860002000000       1.839438000000
       301    1        5.186000000000      31.860002000000       7.357752000000
       302    1        5.186000000000      31.860002000000      12.876066000000
       303    1        5.186000000000      31.860002000000      18.394380000000
       304    1        5.186000000000      31.860002000000      23.912694000000
       305    1        5.186000000000      31.860002000000      29.431008000000
       306    1        5.186000000000      31.860002000000      34.949322000000
       307    1        5.186000000000      31.860002000000      40.467637000000
       308    1        5.186000000000      31.860002000000      45.985951000000
       309    1        5.186000000000      31.860002000000      51.504265000000
       310    1        5.186000000000      31.860002000000      57.022579000000
       311    1        5.186000000000      31.860002000000      62.540893000000
       312    1        5.186000000000      31.860002000000      68.059207000000
       313    1        5.186000000000      35.046002000000       1.839438000000
       314    1        5.186000000000      35.046002000000       7.357752000000
       315    1        5.186000000000      35.046002000000      12.876066000000
       316    1        5.186000000000      35.046002000000      18.394380000000
       317    1        5.186000000000      35.046002000000      23.912694000000
       318    1        5.186000000000      35.046002000000      29.431008000000
       319    1        5.186000000000      35.046002000000      34.949322000000
       320    1        5.186000000000      35.046002000000      40.467637000000
       321    1        5.186000000000      35.046002000000      45.985951000000
       322    1        5.186000000000      35.046002000000      51.504265000000
       323    1        5.186000000000      35.046002000000      57.022579000000
       324    1        5.186000000000      35.046002000000      62.540893000000
       325    1        5.186000000000      35.046002000000      68.059207000000
       326    1       10.372000000000       6.372000000000       1.839438000000
       327    1       10.372000000000       6.372000000000       7.357752000000
       328    1       10.372000000000       6.372000000000      12.876066000000
       329    1       10.372000000000       6.372000000000      18.394380000000
       330    1       10.372000000000       6.372000000000      23.912694000000
       331    1       10.372000000000       6.372000000000      29.431008000000
       332    1       10.372000000000       6.372000000000      34.949322000000
       333    1       10.372000000000       6.372000000000      40.467637000000
       334    1       10.372000000000       6.372000000000      45.985951000000
       335    1       10.372000000000       6.372000000000      51.504265000000
       336    1       10.372000000000       6.372000000000      57.022579000000
       337    1       10.372000000000       6.372000000000      62.540893000000
       338    1       10.372000000000       6.372000000000      68.059207000000
       339    1       10.372000000000       9.558001000000       1.839438000000
       340    1       10.372000000000       9.558001000000       7.357752000000
       341    1       10.372000000000       9.558001000000      12.876066000000
       342    1       10.372000000000       9.558001000000      18.394380000000
       343    1       10.372000000000       9.558001000000      23.912694000000
       344    1       10.372000000000       9.558001000000      29.431008000000
       345    1       10.372000000000       9.558001000000      34.949322000000
       346    1       10.372000000000       9.558001000000      40.467637000000
       347    1       10.372000000000       9.558001000000      45.985951000000
       348    1       10.372000000000       9.558001000000      51.504265000000
       349    1       10.372000000000       9.558001000000      57.022579000000
       350    1       10.372000000000       9.558001000000      62.540893000000
       351    1       10.372000000000       9.558001000000      68.059207000000
       352    1       10.372000000000      12.744001000000       1.839438000000
       353    1       10.372000000000      12.744001000000       7.357752000000
       354    1       10.372000000000      12.744001000000      12.876066000000
       355    1       10.372000000000      12.744001000000      18.394380000000
       356    1       10.372000000000      12.744001000000      23.912694000000
       357    1       10.372000000000      12.744001000000      29.431008000000
       358    1       10.372000000000      12.744001000000      34.949322000000
       359    1       10.372000000000      12.744001000000      40.467637000000
       360    1       10.372000000000      12.744001000000      45.985951000000
       361    1       10.372000000000      12.744001000000      51.504265000000
       362    1       10.372000000000      12.744001000000      57.022579000000
       363    1       10.372000000000      12.744001000000      62.540893000000
       364    1       10.372000000000      12.744001000000      68.059207000000
       365    1       10.372000000000      15.930001000000       1.839438000000