 # XCrySDen XSF file
 
        3711  atoms
           2  atom types
 
     -1.648250000000      31.467750000000  xlo xhi
     10.956300000000      46.066200000000  ylo yhi
     -1.593000000000      68.499000000000  zlo zhi
 
Masses
 
            1   69.72300000             # Ga
            2   14.00700000             # N
 
Atoms # atomic
 
         1    1        0.000000000000      12.876066000000       0.000000000000
         2    1        0.000000000000      12.876066000000      66.905998000000
         3    1        0.000000000000      12.876066000000       3.186000000000
         4    1        0.000000000000      12.876066000000       6.372000000000
         5    1        0.000000000000      12.876066000000       9.558000000000
         6    1        0.000000000000      12.876066000000      12.744000000000
         7    1        0.000000000000      12.876066000000      15.930000000000
         8    1        0.000000000000      12.876066000000      19.115999000000
         9    1        0.000000000000      12.876066000000      22.301999000000
        10    1        0.000000000000      12.876066000000      25.487999000000
        11    1        0.000000000000      12.876066000000      28.673999000000
        12    1        0.000000000000      12.876066000000      31.859999000000
        13    1        0.000000000000      12.876066000000      35.045999000000
        14    1        0.000000000000      12.876066000000      38.231999000000
        15    1        0.000000000000      12.876066000000      41.417999000000
        16    1        0.000000000000      12.876066000000      44.603999000000
        17    1        0.000000000000      12.876066000000      47.789999000000
        18    1        0.000000000000      12.876066000000      50.975999000000
        19    1        0.000000000000      12.876066000000      54.161999000000
        20    1        0.000000000000      12.876066000000      57.347998000000
        21    1        0.000000000000      12.876066000000      60.533998000000
        22    1        0.000000000000      12.876066000000      63.719998000000
        23    1        0.000000000000      18.394380000000       0.000000000000
        24    1        0.000000000000      18.394380000000      66.905998000000
        25    1        0.000000000000      18.394380000000       3.186000000000
        26    1        0.000000000000      18.394380000000       6.372000000000
        27    1        0.000000000000      18.394380000000       9.558000000000
        28    1        0.000000000000      18.394380000000      12.744000000000
        29    1        0.000000000000      18.394380000000      15.930000000000
        30    1        0.000000000000      18.394380000000      19.115999000000
        31    1        0.000000000000      18.394380000000      22.301999000000
        32    1        0.000000000000      18.394380000000      25.487999000000
        33    1        0.000000000000      18.394380000000      28.673999000000
        34    1        0.000000000000      18.394380000000      31.859999000000
        35    1        0.000000000000      18.394380000000      35.045999000000
        36    1        0.000000000000      18.394380000000      38.231999000000
        37    1        0.000000000000      18.394380000000      41.417999000000
        38    1        0.000000000000      18.394380000000      44.603999000000
        39    1        0.000000000000      18.394380000000      47.789999000000
        40    1        0.000000000000      18.394380000000      50.975999000000
        41    1        0.000000000000      18.394380000000      54.161999000000
        42    1        0.000000000000      18.394380000000      57.347998000000
        43    1        0.000000000000      18.394380000000      60.533998000000
        44    1        0.000000000000      18.394380000000      63.719998000000
        45    1        0.000000000000      23.912694000000       0.000000000000
        46    1        0.000000000000      23.912694000000      66.905998000000
        47    1        0.000000000000      23.912694000000       3.186000000000
        48    1        0.000000000000      23.912694000000       6.372000000000
        49    1        0.000000000000      23.912694000000       9.558000000000
        50    1        0.000000000000      23.912694000000      12.744000000000
        51    1        0.000000000000      23.912694000000      15.930000000000
        52    1        0.000000000000      23.912694000000      19.115999000000
        53    1        0.000000000000      23.912694000000      22.301999000000
        54    1        0.000000000000      23.912694000000      25.487999000000
        55    1        0.000000000000      23.912694000000      28.673999000000
        56    1        0.000000000000      23.912694000000      31.859999000000
        57    1        0.000000000000      23.912694000000      35.045999000000
        58    1        0.000000000000      23.912694000000      38.231999000000
        59    1        0.000000000000      23.912694000000      41.417999000000
        60    1        0.000000000000      23.912694000000      44.603999000000
        61    1        0.000000000000      23.912694000000      47.789999000000
        62    1        0.000000000000      23.912694000000      50.975999000000
        63    1        0.000000000000      23.912694000000      54.161999000000
        64    1        0.000000000000      23.912694000000      57.347998000000
        65    1        0.000000000000      23.912694000000      60.533998000000
        66    1        0.000000000000      23.912694000000      63.719998000000
        67    1        0.000000000000      29.431007000000       0.000000000000
        68    1        0.000000000000      29.431007000000      66.905998000000
        69    1        0.000000000000      29.431007000000       3.186000000000
        70    1        0.000000000000      29.431007000000       6.372000000000
        71    1        0.000000000000      29.431007000000       9.558000000000
        72    1        0.000000000000      29.431007000000      12.744000000000
        73    1        0.000000000000      29.431007000000      15.930000000000
        74    1        0.000000000000      29.431007000000      19.115999000000
        75    1        0.000000000000      29.431007000000      22.301999000000
        76    1        0.000000000000      29.431007000000      25.487999000000
        77    1        0.000000000000      29.431007000000      28.673999000000
        78    1        0.000000000000      29.431007000000      31.859999000000
        79    1        0.000000000000      29.431007000000      35.045999000000
        80    1        0.000000000000      29.431007000000      38.231999000000
        81    1        0.000000000000      29.431007000000      41.417999000000
        82    1        0.000000000000      29.431007000000      44.603999000000
        83    1        0.000000000000      29.431007000000      47.789999000000
        84    1        0.000000000000      29.431007000000      50.975999000000
        85    1        0.000000000000      29.431007000000      54.161999000000
        86    1        0.000000000000      29.431007000000      57.347998000000
        87    1        0.000000000000      29.431007000000      60.533998000000
        88    1        0.000000000000      29.431007000000      63.719998000000
        89    1        0.000000000000      34.949321000000       0.000000000000
        90    1        0.000000000000      34.949321000000      66.905998000000
        91    1        0.000000000000      34.949321000000       3.186000000000
        92    1        0.000000000000      34.949321000000       6.372000000000
        93    1        0.000000000000      34.949321000000       9.558000000000
        94    1        0.000000000000      34.949321000000      12.744000000000
        95    1        0.000000000000      34.949321000000      15.930000000000
        96    1        0.000000000000      34.949321000000      19.115999000000
        97    1        0.000000000000      34.949321000000      22.301999000000
        98    1        0.000000000000      34.949321000000      25.487999000000
        99    1        0.000000000000      34.949321000000      28.673999000000
       100    1        0.000000000000      34.949321000000      31.859999000000
       101    1        0.000000000000      34.949321000000      35.045999000000
       102    1        0.000000000000      34.949321000000      38.231999000000
       103    1        0.000000000000      34.949321000000      41.417999000000
       104    1        0.000000000000      34.949321000000      44.603999000000
       105    1        0.000000000000      34.949321000000      47.789999000000
       106    1        0.000000000000      34.949321000000      50.975999000000
       107    1        0.000000000000      34.949321000000      54.161999000000
       108    1        0.000000000000      34.949321000000      57.347998000000
       109    1        0.000000000000      34.949321000000      60.533998000000
       110    1        0.000000000000      34.949321000000      63.719998000000
       111    1        0.000000000000      40.467635000000       0.000000000000
       112    1        0.000000000000      40.467635000000      66.905998000000
       113    1        0.000000000000      40.467635000000       3.186000000000
       114    1        0.000000000000      40.467635000000       6.372000000000
       115    1        0.000000000000      40.467635000000       9.558000000000
       116    1        0.000000000000      40.467635000000      12.744000000000
       117    1        0.000000000000      40.467635000000      15.930000000000
       118    1        0.000000000000      40.467635000000      19.115999000000
       119    1        0.000000000000      40.467635000000      22.301999000000
       120    1        0.000000000000      40.467635000000      25.487999000000
       121    1        0.000000000000      40.467635000000      28.673999000000
       122    1        0.000000000000      40.467635000000      31.859999000000
       123    1        0.000000000000      40.467635000000      35.045999000000
       124    1        0.000000000000      40.467635000000      38.231999000000
       125    1        0.000000000000      40.467635000000      41.417999000000
       126    1        0.000000000000      40.467635000000      44.603999000000
       127    1        0.000000000000      40.467635000000      47.789999000000
       128    1        0.000000000000      40.467635000000      50.975999000000
       129    1        0.000000000000      40.467635000000      54.161999000000
       130    1        0.000000000000      40.467635000000      57.347998000000
       131    1        0.000000000000      40.467635000000      60.533998000000
       132    1        0.000000000000      40.467635000000      63.719998000000
       133    1        5.186000000000      18.394380000000       0.000000000000
       134    1        5.186000000000      18.394380000000      66.905998000000
       135    1        5.186000000000      18.394380000000       3.186000000000
       136    1        5.186000000000      18.394380000000       6.372000000000
       137    1        5.186000000000      18.394380000000       9.558000000000
       138    1        5.186000000000      18.394380000000      12.744000000000
       139    1        5.186000000000      18.394380000000      15.930000000000
       140    1        5.186000000000      18.394380000000      19.115999000000
       141    1        5.186000000000      18.394380000000      22.301999000000
       142    1        5.186000000000      18.394380000000      25.487999000000
       143    1        5.186000000000      18.394380000000      28.673999000000
       144    1        5.186000000000      18.394380000000      31.859999000000
       145    1        5.186000000000      18.394380000000      35.045999000000
       146    1        5.186000000000      18.394380000000      38.231999000000
       147    1        5.186000000000      18.394380000000      41.417999000000
       148    1        5.186000000000      18.394380000000      44.603999000000
       149    1        5.186000000000      18.394380000000      47.789999000000
       150    1        5.186000000000      18.394380000000      50.975999000000
       151    1        5.186000000000      18.394380000000      54.161999000000
       152    1        5.186000000000      18.394380000000      57.347998000000
       153    1        5.186000000000      18.394380000000      60.533998000000
       154    1        5.186000000000      18.394380000000      63.719998000000
       155    1        5.186000000000      23.912694000000       0.000000000000
       156    1        5.186000000000      23.912694000000      66.905998000000
       157    1        5.186000000000      23.912694000000       3.186000000000
       158    1        5.186000000000      23.912694000000       6.372000000000
       159    1        5.186000000000      23.912694000000       9.558000000000
       160    1        5.186000000000      23.912694000000      12.744000000000
       161    1        5.186000000000      23.912694000000      15.930000000000
       162    1        5.186000000000      23.912694000000      19.115999000000
       163    1        5.186000000000      23.912694000000      22.301999000000
       164    1        5.186000000000      23.912694000000      25.487999000000
       165    1        5.186000000000      23.912694000000      28.673999000000
       166    1        5.186000000000      23.912694000000      31.859999000000
       167    1        5.186000000000      23.912694000000      35.045999000000
       168    1        5.186000000000      23.912694000000      38.231999000000
       169    1        5.186000000000      23.912694000000      41.417999000000
       170    1        5.186000000000      23.912694000000      44.603999000000
       171    1        5.186000000000      23.912694000000      47.789999000000
       172    1        5.186000000000      23.912694000000      50.975999000000
       173    1        5.186000000000      23.912694000000      54.161999000000
       174    1        5.186000000000      23.912694000000      57.347998000000
       175    1        5.186000000000      23.912694000000      60.533998000000
       176    1        5.186000000000      23.912694000000      63.719998000000
       177    1        5.186000000000      29.431007000000       0.000000000000
       178    1        5.186000000000      29.431007000000      66.905998000000
       179    1        5.186000000000      29.431007000000       3.186000000000
       180    1        5.186000000000      29.431007000000       6.372000000000
       181    1        5.186000000000      29.431007000000       9.558000000000
       182    1        5.186000000000      29.431007000000      12.744000000000
       183    1        5.186000000000      29.431007000000      15.930000000000
       184    1        5.186000000000      29.431007000000      19.115999000000
       185    1        5.186000000000      29.431007000000      22.301999000000
       186    1        5.186000000000      29.431007000000      25.487999000000
       187    1        5.186000000000      29.431007000000      28.673999000000
       188    1        5.186000000000      29.431007000000      31.859999000000
       189    1        5.186000000000      29.431007000000      35.045999000000
       190    1        5.186000000000      29.431007000000      38.231999000000
       191    1        5.186000000000      29.431007000000      41.417999000000
       192    1        5.186000000000      29.431007000000      44.603999000000
       193    1        5.186000000000      29.431007000000      47.789999000000
       194    1        5.186000000000      29.431007000000      50.975999000000
       195    1        5.186000000000      29.431007000000      54.161999000000
       196    1        5.186000000000      29.431007000000      57.347998000000
       197    1        5.186000000000      29.431007000000      60.533998000000
       198    1        5.186000000000      29.431007000000      63.719998000000
       199    1        5.186000000000      34.949321000000       0.000000000000
       200    1        5.186000000000      34.949321000000      66.905998000000
       201    1        5.186000000000      34.949321000000       3.186000000000
       202    1        5.186000000000      34.949321000000       6.372000000000
       203    1        5.186000000000      34.949321000000       9.558000000000
       204    1        5.186000000000      34.949321000000      12.744000000000
       205    1        5.186000000000      34.949321000000      15.930000000000
       206    1        5.186000000000      34.949321000000      19.115999000000
       207    1        5.186000000000      34.949321000000      22.301999000000
       208    1        5.186000000000      34.949321000000      25.487999000000
       209    1        5.186000000000      34.949321000000      28.673999000000
       210    1        5.186000000000      34.949321000000      31.859999000000
       211    1        5.186000000000      34.949321000000      35.045999000000
       212    1        5.186000000000      34.949321000000      38.231999000000
       213    1        5.186000000000      34.949321000000      41.417999000000
       214    1        5.186000000000      34.949321000000      44.603999000000
       215    1        5.186000000000      34.949321000000      47.789999000000
       216    1        5.186000000000      34.949321000000      50.975999000000
       217    1        5.186000000000      34.949321000000      54.161999000000
       218    1        5.186000000000      34.949321000000      57.347998000000
       219    1        5.186000000000      34.949321000000      60.533998000000
       220    1        5.186000000000      34.949321000000      63.719998000000
       221    1        5.186000000000      40.467635000000       0.000000000000
       222    1        5.186000000000      40.467635000000      66.905998000000
       223    1        5.186000000000      40.467635000000       3.186000000000
       224    1        5.186000000000      40.467635000000       6.372000000000
       225    1        5.186000000000      40.467635000000       9.558000000000
       226    1        5.186000000000      40.467635000000      12.744000000000
       227    1        5.186000000000      40.467635000000      15.930000000000
       228    1        5.186000000000      40.467635000000      19.115999000000
       229    1        5.186000000000      40.467635000000      22.301999000000
       230    1        5.186000000000      40.467635000000      25.487999000000
       231    1        5.186000000000      40.467635000000      28.673999000000
       232    1        5.186000000000      40.467635000000      31.859999000000
       233    1        5.186000000000      40.467635000000      35.045999000000
       234    1        5.186000000000      40.467635000000      38.231999000000
       235    1        5.186000000000      40.467635000000      41.417999000000
       236    1        5.186000000000      40.467635000000      44.603999000000
       237    1        5.186000000000      40.467635000000      47.789999000000
       238    1        5.186000000000      40.467635000000      50.975999000000
       239    1        5.186000000000      40.467635000000      54.161999000000
       240    1        5.186000000000      40.467635000000      57.347998000000
       241    1        5.186000000000      40.467635000000      60.533998000000
       242    1        5.186000000000      40.467635000000      63.719998000000
       243    1       10.372000000000      18.394380000000       0.000000000000
       244    1       10.372000000000      18.394380000000      66.905998000000
       245    1       10.372000000000      18.394380000000       3.186000000000
       246    1       10.372000000000      18.394380000000       6.372000000000
       247    1       10.372000000000      18.394380000000       9.558000000000
       248    1       10.372000000000      18.394380000000      12.744000000000
       249    1       10.372000000000      18.394380000000      15.930000000000
       250    1       10.372000000000      18.394380000000      19.115999000000
       251    1       10.372000000000      18.394380000000      22.301999000000
       252    1       10.372000000000      18.394380000000      25.487999000000
       253    1       10.372000000000      18.394380000000      28.673999000000
       254    1       10.372000000000      18.394380000000      31.859999000000
       255    1       10.372000000000      18.394380000000      35.045999000000
       256    1       10.372000000000      18.394380000000      38.231999000000
       257    1       10.372000000000      18.394380000000      41.417999000000
       258    1       10.372000000000      18.394380000000      44.603999000000
       259    1       10.372000000000      18.394380000000      47.789999000000
       260    1       10.372000000000      18.394380000000      50.975999000000
       261    1       10.372000000000      18.394380000000      54.161999000000
       262    1       10.372000000000      18.394380000000      57.347998000000
       263    1       10.372000000000      18.394380000000      60.533998000000
       264    1       10.372000000000      18.394380000000      63.719998000000
       265    1       10.372000000000      23.912694000000       0.000000000000
       266    1       10.372000000000      23.912694000000      66.905998000000
       267    1       10.372000000000      23.912694000000       3.186000000000
       268    1       10.372000000000      23.912694000000       6.372000000000
       269    1       10.372000000000      23.912694000000       9.558000000000
       270    1       10.372000000000      23.912694000000      12.744000000000
       271    1       10.372000000000      23.912694000000      15.930000000000
       272    1       10.372000000000      23.912694000000      19.115999000000
       273    1       10.372000000000      23.912694000000      22.301999000000
       274    1       10.372000000000      23.912694000000      25.487999000000
       275    1       10.372000000000      23.912694000000      28.673999000000
       276    1       10.372000000000      23.912694000000      31.859999000000
       277    1       10.372000000000      23.912694000000      35.045999000000
       278    1       10.372000000000      23.912694000000      38.231999000000
       279    1       10.372000000000      23.912694000000      41.417999000000
       280    1       10.372000000000      23.912694000000      44.603999000000
       281    1       10.372000000000      23.912694000000      47.789999000000
       282    1       10.372000000000      23.912694000000      50.975999000000
       283    1       10.372000000000      23.912694000000      54.161999000000
       284    1       10.372000000000      23.912694000000      57.347998000000
       285    1       10.372000000000      23.912694000000      60.533998000000
       286    1       10.372000000000      23.912694000000      63.719998000000
       287    1       10.372000000000      29.431007000000       0.000000000000
       288    1       10.372000000000      29.431007000000      66.905998000000
       289    1       10.372000000000      29.431007000000       3.186000000000
       290    1       10.372000000000      29.431007000000       6.372000000000
       291    1       10.372000000000      29.431007000000       9.558000000000
       292    1       10.372000000000      29.431007000000      12.744000000000
       293    1       10.372000000000      29.431007000000      15.930000000000
       294    1       10.372000000000      29.431007000000      19.115999000000
       295    1       10.372000000000      29.431007000000      22.301999000000
       296    1       10.372000000000      29.431007000000      25.487999000000
       297    1       10.372000000000      29.431007000000      28.673999000000
       298    1       10.372000000000      29.431007000000      31.859999000000
       299    1       10.372000000000      29.431007000000      35.045999000000
       300    1       10.372000000000      29.431007000000      38.231999000000
       301    1       10.372000000000      29.431007000000      41.417999000000
       302    1       10.372000000000      29.431007000000      44.603999000000
       303    1       10.372000000000      29.431007000000      47.789999000000
       304    1       10.372000000000      29.431007000000      50.975999000000
       305    1       10.372000000000      29.431007000000      54.161999000000
       306    1       10.372000000000      29.431007000000      57.347998000000
       307    1       10.372000000000      29.431007000000      60.533998000000
       308    1       10.372000000000      29.431007000000      63.719998000000
       309    1       10.372000000000      34.949321000000       0.000000000000
       310    1       10.372000000000      34.949321000000      66.905998000000
       311    1       10.372000000000      34.949321000000       3.186000000000
       312    1       10.372000000000      34.949321000000       6.372000000000
       313    1       10.372000000000      34.949321000000       9.558000000000
       314    1       10.372000000000      34.949321000000      12.744000000000
       315    1       10.372000000000      34.949321000000      15.930000000000
       316    1       10.372000000000      34.949321000000      19.115999000000
       317    1       10.372000000000      34.949321000000      22.301999000000
       318    1       10.372000000000      34.949321000000      25.487999000000
       319    1       10.372000000000      34.949321000000      28.673999000000
       320    1       10.372000000000      34.949321000000      31.859999000000
       321    1       10.372000000000      34.949321000000      35.045999000000
       322    1       10.372000000000      34.949321000000      38.231999000000
       323    1       10.372000000000      34.949321000000      41.417999000000
       324    1       10.372000000000      34.949321000000      44.603999000000
       325    1       10.372000000000      34.949321000000      47.789999000000
       326    1       10.372000000000      34.949321000000      50.975999000000
       327    1       10.372000000000      34.949321000000      54.161999000000
       328    1       10.372000000000      34.949321000000      57.347998000000
       329    1       10.372000000000      34.949321000000      60.533998000000
       330    1       10.372000000000      34.949321000000      63.719998000000
       331    1       15.558000000000      23.912694000000       0.000000000000
       332    1       15.558000000000      23.912694000000      66.905998000000
       333    1       15.558000000000      23.912694000000       3.186000000000
       334    1       15.558000000000      23.912694000000       6.372000000000
       335    1       15.558000000000      23.912694000000       9.558000000000
       336    1       15.558000000000      23.912694000000      12.744000000000
       337    1       15.558000000000      23.912694000000      15.930000000000
       338    1       15.558000000000      23.912694000000      19.115999000000
       339    1       15.558000000000      23.912694000000      22.301999000000
       340    1       15.558000000000      23.912694000000      25.487999000000
       341    1       15.558000000000      23.912694000000      28.673999000000
       342    1       15.558000000000      23.912694000000      31.859999000000
       343    1       15.558000000000      23.912694000000      35.045999000000
       344    1       15.558000000000      23.912694000000      38.231999000000
       345    1       15.558000000000      23.912694000000      41.417999000000
       346    1       15.558000000000      23.912694000000      44.603999000000
       347    1       15.558000000000      23.912694000000      47.789999000000
       348    1       15.558000000000      23.912694000000      50.975999000000
       349    1       15.558000000000      23.912694000000      54.161999000000
       350    1       15.558000000000      23.912694000000      57.347998000000
       351    1       15.558000000000      23.912694000000      60.533998000000
       352    1       15.558000000000      23.912694000000      63.719998000000
       353    1       15.558000000000      29.431007000000       0.000000000000
       354    1       15.558000000000      29.431007000000      66.905998000000
       355    1       15.558000000000      29.431007000000       3.186000000000
       356    1       15.558000000000      29.431007000000       6.372000000000
       357    1       15.558000000000      29.431007000000       9.558000000000
       358    1       15.558000000000      29.431007000000      12.744000000000
       359    1       15.558000000000      29.431007000000      15.930000000000
       360    1       15.558000000000      29.431007000000      19.115999000000
       361    1       15.558000000000      29.431007000000      22.301999000000
       362    1       15.558000000000      29.431007000000      25.487999000000
       363    1       15.558000000000      29.431007000000      28.673999000000
       364    1       15.558000000000      29.431007000000      31.859999000000
       365    1       15.558000000000      29.431007000000      35.045999000000